<?xml version="1.0" encoding="UTF-8"?>

<!-- generated on 2025-10-10 22:52:20 by Eclipse SUMO GUI Version 1.24.0
<sumoConfiguration xmlns:xsi="http://www.w3.org/2001/XMLSchema-instance" xsi:noNamespaceSchemaLocation="http://sumo.dlr.de/xsd/sumoConfiguration.xsd">

    <input>
        <net-file value="C:\Users\P14s\OneDrive\Desktop\bk\vn.net.xml"/>
        <route-files value="C:\Users\P14s\OneDrive\Desktop\bk\full_routes.xml"/>
        <additional-files value="C:\Users\P14s\OneDrive\Desktop\bk\vtype.xml"/>
    </input>

    <output>
        <summary-output value="C:\Users\P14s\OneDrive\Desktop\bk\vn.summary.xml"/>
        <tripinfo-output value="C:\Users\P14s\OneDrive\Desktop\bk\vn.tripinfo.xml"/>
    </output>

    <time>
        <begin value="0"/>
        <end value="3600"/>
        <step-length value="0.1"/>
    </time>

    <processing>
        <lateral-resolution value="0.6"/>
        <collision.action value="warn"/>
        <collision.check-junctions value="true"/>
        <collision.mingap-factor value="1.0"/>
        <tls.all-off value="false"/>
        <tls.actuated.show-detectors value="false"/>
    </processing>

    <report>
        <verbose value="true"/>
        <no-warnings value="false"/>
        <log value="C:\Users\P14s\OneDrive\Desktop\bk\vn.simulation.log"/>
        <duration-log.statistics value="true"/>
    </report>

    <random_number>
        <random value="true"/>
        <seed value="42"/>
    </random_number>

    <gui_only>
        <start value="false"/>
        <delay value="100"/>
    </gui_only>

</sumoConfiguration>
-->

<tripinfos xmlns:xsi="http://www.w3.org/2001/XMLSchema-instance" xsi:noNamespaceSchemaLocation="http://sumo.dlr.de/xsd/tripinfo_file.xsd">
    <tripinfo id="base_sn_mid_car.0" depart="0.00" departLane="N_out_8_to_J8_1" departPos="5.10" departPosLat="0.00" departSpeed="0.00" departDelay="0.00" arrival="54.50" arrivalLane="J2_to_N_out_2_1" arrivalPos="189.50" arrivalPosLat="0.00" arrivalSpeed="14.21" duration="54.50" routeLength="794.90" waitingTime="0.00" waitingCount="0" stopTime="0.00" timeLoss="3.73" rerouteNo="1" devices="tripinfo_base_sn_mid_car.0 routing_base_sn_mid_car.0" vType="car" speedFactor="1.03" vaporized=""/>
    <tripinfo id="base_we_bot_car.0" depart="0.00" departLane="N_out_7_to_J7_1" departPos="5.10" departPosLat="0.00" departSpeed="0.00" departDelay="0.00" arrival="92.70" arrivalLane="J9_to_N_out_9_1" arrivalPos="189.50" arrivalPosLat="0.00" arrivalSpeed="13.65" duration="92.70" routeLength="794.90" waitingTime="27.00" waitingCount="1" stopTime="0.00" timeLoss="34.82" rerouteNo="1" devices="tripinfo_base_we_bot_car.0 routing_base_we_bot_car.0" vType="car" speedFactor="1.24" vaporized=""/>
    <tripinfo id="peak_morning_we_top_moto.2" depart="4.50" departLane="N_out_1w_to_J1_0" departPos="2.10" departPosLat="0.00" departSpeed="0.00" departDelay="2.90" arrival="95.30" arrivalLane="J3_to_N_out_3e_0" arrivalPos="189.50" arrivalPosLat="-0.00" arrivalSpeed="12.93" duration="90.80" routeLength="797.90" waitingTime="16.00" waitingCount="3" stopTime="0.00" timeLoss="30.27" rerouteNo="1" devices="tripinfo_peak_morning_we_top_moto.2 routing_peak_morning_we_top_moto.2" vType="motorcycle" speedFactor="1.30" vaporized=""/>
    <tripinfo id="base_ew_top_moto.1" depart="2.50" departLane="N_out_3e_to_J3_0" departPos="2.10" departPosLat="0.00" departSpeed="0.00" departDelay="0.00" arrival="95.40" arrivalLane="J1_to_N_out_1w_1" arrivalPos="189.50" arrivalPosLat="0.00" arrivalSpeed="13.58" duration="92.90" routeLength="797.90" waitingTime="17.50" waitingCount="2" stopTime="0.00" timeLoss="32.54" rerouteNo="1" devices="tripinfo_base_ew_top_moto.1 routing_base_ew_top_moto.1" vType="motorcycle" speedFactor="1.23" vaporized=""/>
    <tripinfo id="peak_morning_we_bot_moto.0" depart="1.50" departLane="N_out_7_to_J7_0" departPos="2.10" departPosLat="0.00" departSpeed="0.00" departDelay="1.50" arrival="97.10" arrivalLane="J9_to_N_out_9_1" arrivalPos="189.50" arrivalPosLat="-0.00" arrivalSpeed="12.83" duration="95.60" routeLength="797.90" waitingTime="18.50" waitingCount="3" stopTime="0.00" timeLoss="32.74" rerouteNo="1" devices="tripinfo_peak_morning_we_bot_moto.0 routing_peak_morning_we_bot_moto.0" vType="motorcycle" speedFactor="1.16" vaporized=""/>
    <tripinfo id="base_ew_bot_moto.1" depart="2.50" departLane="N_out_9_to_J9_0" departPos="2.10" departPosLat="0.00" departSpeed="0.00" departDelay="0.00" arrival="100.30" arrivalLane="J7_to_N_out_7_0" arrivalPos="189.50" arrivalPosLat="0.00" arrivalSpeed="11.78" duration="97.80" routeLength="797.90" waitingTime="17.80" waitingCount="3" stopTime="0.00" timeLoss="31.99" rerouteNo="1" devices="tripinfo_base_ew_bot_moto.1 routing_base_ew_bot_moto.1" vType="motorcycle" speedFactor="1.19" vaporized=""/>
    <tripinfo id="peak_morning_we_top_moto.0" depart="1.50" departLane="N_out_1w_to_J1_0" departPos="2.10" departPosLat="0.00" departSpeed="0.00" departDelay="1.50" arrival="100.70" arrivalLane="J3_to_N_out_3e_1" arrivalPos="189.50" arrivalPosLat="-1.25" arrivalSpeed="12.14" duration="99.20" routeLength="797.90" waitingTime="22.10" waitingCount="1" stopTime="0.00" timeLoss="30.95" rerouteNo="1" devices="tripinfo_peak_morning_we_top_moto.0 routing_peak_morning_we_top_moto.0" vType="motorcycle" speedFactor="1.10" vaporized=""/>
    <tripinfo id="base_ew_bot_car.0" depart="0.00" departLane="N_out_9_to_J9_1" departPos="5.10" departPosLat="0.00" departSpeed="0.00" departDelay="0.00" arrival="100.80" arrivalLane="J7_to_N_out_7_1" arrivalPos="189.50" arrivalPosLat="0.00" arrivalSpeed="11.46" duration="100.80" routeLength="794.90" waitingTime="25.20" waitingCount="1" stopTime="0.00" timeLoss="31.77" rerouteNo="1" devices="tripinfo_base_ew_bot_car.0 routing_base_ew_bot_car.0" vType="car" speedFactor="1.04" vaporized=""/>
    <tripinfo id="base_ew_bot_moto.2" depart="5.00" departLane="N_out_9_to_J9_0" departPos="2.10" departPosLat="0.00" departSpeed="0.00" departDelay="0.00" arrival="102.00" arrivalLane="J7_to_N_out_7_1" arrivalPos="189.50" arrivalPosLat="0.05" arrivalSpeed="12.99" duration="97.00" routeLength="797.90" waitingTime="18.00" waitingCount="1" stopTime="0.00" timeLoss="35.97" rerouteNo="1" devices="tripinfo_base_ew_bot_moto.2 routing_base_ew_bot_moto.2" vType="motorcycle" speedFactor="1.18" vaporized=""/>
    <tripinfo id="base_ew_bot_moto.3" depart="7.50" departLane="N_out_9_to_J9_0" departPos="2.10" departPosLat="0.00" departSpeed="0.00" departDelay="0.00" arrival="102.00" arrivalLane="J7_to_N_out_7_1" arrivalPos="189.50" arrivalPosLat="1.35" arrivalSpeed="12.14" duration="94.50" routeLength="797.90" waitingTime="15.90" waitingCount="1" stopTime="0.00" timeLoss="28.93" rerouteNo="1" devices="tripinfo_base_ew_bot_moto.3 routing_base_ew_bot_moto.3" vType="motorcycle" speedFactor="1.10" vaporized=""/>
    <tripinfo id="base_ew_bot_moto.6" depart="15.00" departLane="N_out_9_to_J9_0" departPos="2.10" departPosLat="0.00" departSpeed="0.00" departDelay="0.00" arrival="102.10" arrivalLane="J7_to_N_out_7_1" arrivalPos="189.50" arrivalPosLat="-1.42" arrivalSpeed="11.99" duration="87.10" routeLength="797.90" waitingTime="1.90" waitingCount="1" stopTime="0.00" timeLoss="20.68" rerouteNo="1" devices="tripinfo_base_ew_bot_moto.6 routing_base_ew_bot_moto.6" vType="motorcycle" speedFactor="1.08" vaporized=""/>
    <tripinfo id="peak_morning_we_bot_moto.3" depart="6.00" departLane="N_out_7_to_J7_0" departPos="2.10" departPosLat="0.00" departSpeed="0.00" departDelay="3.60" arrival="103.00" arrivalLane="J9_to_N_out_9_0" arrivalPos="189.50" arrivalPosLat="-0.00" arrivalSpeed="10.79" duration="97.00" routeLength="797.90" waitingTime="16.40" waitingCount="1" stopTime="0.00" timeLoss="28.35" rerouteNo="1" devices="tripinfo_peak_morning_we_bot_moto.3 routing_peak_morning_we_bot_moto.3" vType="motorcycle" speedFactor="1.08" vaporized=""/>
    <tripinfo id="base_ew_bot_moto.4" depart="10.00" departLane="N_out_9_to_J9_0" departPos="2.10" departPosLat="0.00" departSpeed="0.00" departDelay="0.00" arrival="103.10" arrivalLane="J7_to_N_out_7_1" arrivalPos="189.50" arrivalPosLat="0.00" arrivalSpeed="11.83" duration="93.10" routeLength="797.90" waitingTime="10.90" waitingCount="1" stopTime="0.00" timeLoss="21.83" rerouteNo="1" devices="tripinfo_base_ew_bot_moto.4 routing_base_ew_bot_moto.4" vType="motorcycle" speedFactor="1.07" vaporized=""/>
    <tripinfo id="base_we_bot_moto.1" depart="7.50" departLane="N_out_7_to_J7_0" departPos="2.10" departPosLat="0.00" departSpeed="0.00" departDelay="5.00" arrival="104.10" arrivalLane="J9_to_N_out_9_1" arrivalPos="189.50" arrivalPosLat="0.00" arrivalSpeed="11.40" duration="96.60" routeLength="797.90" waitingTime="15.00" waitingCount="1" stopTime="0.00" timeLoss="26.64" rerouteNo="1" devices="tripinfo_base_we_bot_moto.1 routing_base_we_bot_moto.1" vType="motorcycle" speedFactor="1.03" vaporized=""/>
    <tripinfo id="base_ew_bot_moto.0" depart="0.00" departLane="N_out_9_to_J9_0" departPos="2.10" departPosLat="0.00" departSpeed="0.00" departDelay="0.00" arrival="104.70" arrivalLane="J7_to_N_out_7_0" arrivalPos="189.50" arrivalPosLat="0.00" arrivalSpeed="10.72" duration="104.70" routeLength="797.90" waitingTime="23.80" waitingCount="1" stopTime="0.00" timeLoss="30.41" rerouteNo="1" devices="tripinfo_base_ew_bot_moto.0 routing_base_ew_bot_moto.0" vType="motorcycle" speedFactor="1.07" vaporized=""/>
    <tripinfo id="base_ew_bot_moto.9" depart="22.50" departLane="N_out_9_to_J9_0" departPos="2.10" departPosLat="0.00" departSpeed="0.00" departDelay="0.00" arrival="105.70" arrivalLane="J7_to_N_out_7_0" arrivalPos="189.50" arrivalPosLat="0.00" arrivalSpeed="11.45" duration="83.20" routeLength="797.90" waitingTime="0.00" waitingCount="0" stopTime="0.00" timeLoss="14.97" rerouteNo="1" devices="tripinfo_base_ew_bot_moto.9 routing_base_ew_bot_moto.9" vType="motorcycle" speedFactor="1.15" vaporized=""/>
    <tripinfo id="peak_morning_we_mid_car.0" depart="6.80" departLane="N_out_4_to_J4_1" departPos="5.10" departPosLat="0.00" departSpeed="0.00" departDelay="6.80" arrival="106.40" arrivalLane="J6_to_N_out_6_2" arrivalPos="189.50" arrivalPosLat="0.00" arrivalSpeed="16.64" duration="99.60" routeLength="794.90" waitingTime="36.30" waitingCount="2" stopTime="0.00" timeLoss="51.73" rerouteNo="1" devices="tripinfo_peak_morning_we_mid_car.0 routing_peak_morning_we_mid_car.0" vType="car" speedFactor="1.09" vaporized=""/>
    <tripinfo id="base_ew_bot_moto.5" depart="12.50" departLane="N_out_9_to_J9_0" departPos="2.10" departPosLat="0.00" departSpeed="0.00" departDelay="0.00" arrival="106.50" arrivalLane="J7_to_N_out_7_1" arrivalPos="189.50" arrivalPosLat="-0.36" arrivalSpeed="10.89" duration="94.00" routeLength="797.90" waitingTime="8.50" waitingCount="1" stopTime="0.00" timeLoss="18.80" rerouteNo="1" devices="tripinfo_base_ew_bot_moto.5 routing_base_ew_bot_moto.5" vType="motorcycle" speedFactor="0.98" vaporized=""/>
    <tripinfo id="base_we_bot_moto.0" depart="0.00" departLane="N_out_7_to_J7_0" departPos="2.10" departPosLat="0.00" departSpeed="0.00" departDelay="0.00" arrival="106.60" arrivalLane="J9_to_N_out_9_1" arrivalPos="189.50" arrivalPosLat="0.00" arrivalSpeed="10.95" duration="106.60" routeLength="797.90" waitingTime="15.90" waitingCount="3" stopTime="0.00" timeLoss="31.59" rerouteNo="1" devices="tripinfo_base_we_bot_moto.0 routing_base_we_bot_moto.0" vType="motorcycle" speedFactor="0.99" vaporized=""/>
    <tripinfo id="peak_morning_we_bot_moto.2" depart="4.50" departLane="N_out_7_to_J7_0" departPos="2.10" departPosLat="0.00" departSpeed="0.00" departDelay="2.90" arrival="106.70" arrivalLane="J9_to_N_out_9_0" arrivalPos="189.50" arrivalPosLat="-0.00" arrivalSpeed="10.25" duration="102.20" routeLength="797.90" waitingTime="17.80" waitingCount="1" stopTime="0.00" timeLoss="27.98" rerouteNo="1" devices="tripinfo_peak_morning_we_bot_moto.2 routing_peak_morning_we_bot_moto.2" vType="motorcycle" speedFactor="1.03" vaporized=""/>
    <tripinfo id="base_we_mid_car.0" depart="0.00" departLane="N_out_4_to_J4_1" departPos="5.10" departPosLat="0.00" departSpeed="0.00" departDelay="0.00" arrival="106.90" arrivalLane="J6_to_N_out_6_1" arrivalPos="189.50" arrivalPosLat="0.00" arrivalSpeed="15.74" duration="106.90" routeLength="794.90" waitingTime="42.40" waitingCount="2" stopTime="0.00" timeLoss="56.83" rerouteNo="1" devices="tripinfo_base_we_mid_car.0 routing_base_we_mid_car.0" vType="car" speedFactor="1.14" vaporized=""/>
    <tripinfo id="peak_morning_we_top_moto.4" depart="9.00" departLane="N_out_1w_to_J1_0" departPos="2.10" departPosLat="0.00" departSpeed="0.00" departDelay="5.80" arrival="106.90" arrivalLane="J3_to_N_out_3e_0" arrivalPos="189.50" arrivalPosLat="0.00" arrivalSpeed="10.54" duration="97.90" routeLength="797.90" waitingTime="15.60" waitingCount="1" stopTime="0.00" timeLoss="22.81" rerouteNo="1" devices="tripinfo_peak_morning_we_top_moto.4 routing_peak_morning_we_top_moto.4" vType="motorcycle" speedFactor="1.06" vaporized=""/>
    <tripinfo id="peak_morning_we_top_moto.3" depart="6.00" departLane="N_out_1w_to_J1_0" departPos="2.10" departPosLat="0.00" departSpeed="0.00" departDelay="3.60" arrival="107.50" arrivalLane="J3_to_N_out_3e_1" arrivalPos="189.50" arrivalPosLat="-1.56" arrivalSpeed="10.67" duration="101.50" routeLength="797.90" waitingTime="10.50" waitingCount="2" stopTime="0.00" timeLoss="27.12" rerouteNo="1" devices="tripinfo_peak_morning_we_top_moto.3 routing_peak_morning_we_top_moto.3" vType="motorcycle" speedFactor="0.97" vaporized=""/>
    <tripinfo id="base_ew_mid_car.0" depart="0.00" departLane="N_out_6_to_J6_1" departPos="5.10" departPosLat="0.00" departSpeed="0.00" departDelay="0.00" arrival="107.70" arrivalLane="J4_to_N_out_4_1" arrivalPos="189.50" arrivalPosLat="1.35" arrivalSpeed="13.86" duration="107.70" routeLength="794.90" waitingTime="43.10" waitingCount="2" stopTime="0.00" timeLoss="57.91" rerouteNo="1" devices="tripinfo_base_ew_mid_car.0 routing_base_ew_mid_car.0" vType="car" speedFactor="1.00" vaporized=""/>
    <tripinfo id="base_we_top_car.0" depart="0.00" departLane="N_out_1w_to_J1_1" departPos="5.10" departPosLat="0.00" departSpeed="0.00" departDelay="0.00" arrival="108.20" arrivalLane="J3_to_N_out_3e_1" arrivalPos="189.50" arrivalPosLat="0.70" arrivalSpeed="9.99" duration="108.20" routeLength="794.90" waitingTime="23.40" waitingCount="1" stopTime="0.00" timeLoss="29.36" rerouteNo="1" devices="tripinfo_base_we_top_car.0 routing_base_we_top_car.0" vType="car" speedFactor="0.91" vaporized=""/>
    <tripinfo id="base_ns_mid_car.0" depart="0.00" departLane="N_out_2_to_J2_1" departPos="5.10" departPosLat="0.00" departSpeed="0.00" departDelay="0.00" arrival="108.20" arrivalLane="J8_to_N_out_8_1" arrivalPos="189.50" arrivalPosLat="1.65" arrivalSpeed="13.26" duration="108.20" routeLength="794.90" waitingTime="42.70" waitingCount="1" stopTime="0.00" timeLoss="50.79" rerouteNo="1" devices="tripinfo_base_ns_mid_car.0 routing_base_ns_mid_car.0" vType="car" speedFactor="0.85" vaporized=""/>
    <tripinfo id="base_ew_top_car.0" depart="0.00" departLane="N_out_3e_to_J3_1" departPos="5.10" departPosLat="0.00" departSpeed="0.00" departDelay="0.00" arrival="108.30" arrivalLane="J1_to_N_out_1w_1" arrivalPos="189.50" arrivalPosLat="0.00" arrivalSpeed="9.95" duration="108.30" routeLength="794.90" waitingTime="23.30" waitingCount="1" stopTime="0.00" timeLoss="29.29" rerouteNo="1" devices="tripinfo_base_ew_top_car.0 routing_base_ew_top_car.0" vType="car" speedFactor="0.91" vaporized=""/>
    <tripinfo id="peak_morning_we_mid_moto.1" depart="3.00" departLane="N_out_4_to_J4_0" departPos="2.10" departPosLat="0.00" departSpeed="0.00" departDelay="2.40" arrival="108.50" arrivalLane="J6_to_N_out_6_0" arrivalPos="189.50" arrivalPosLat="0.00" arrivalSpeed="13.80" duration="105.50" routeLength="797.90" waitingTime="34.70" waitingCount="2" stopTime="0.00" timeLoss="47.97" rerouteNo="1" devices="tripinfo_peak_morning_we_mid_moto.1 routing_peak_morning_we_mid_moto.1" vType="motorcycle" speedFactor="1.16" vaporized=""/>
    <tripinfo id="base_sn_mid_moto.0" depart="0.00" departLane="N_out_8_to_J8_0" departPos="2.10" departPosLat="0.00" departSpeed="0.00" departDelay="0.00" arrival="108.60" arrivalLane="J2_to_N_out_2_1" arrivalPos="189.50" arrivalPosLat="-1.31" arrivalSpeed="13.79" duration="108.60" routeLength="797.90" waitingTime="42.10" waitingCount="1" stopTime="0.00" timeLoss="50.17" rerouteNo="1" devices="tripinfo_base_sn_mid_moto.0 routing_base_sn_mid_moto.0" vType="motorcycle" speedFactor="1.02" vaporized=""/>
    <tripinfo id="base_ns_mid_moto.2" depart="4.00" departLane="N_out_2_to_J2_0" departPos="2.10" departPosLat="0.00" departSpeed="0.00" departDelay="0.00" arrival="108.60" arrivalLane="J8_to_N_out_8_1" arrivalPos="189.50" arrivalPosLat="-1.40" arrivalSpeed="13.87" duration="104.60" routeLength="797.90" waitingTime="37.30" waitingCount="1" stopTime="0.00" timeLoss="45.83" rerouteNo="1" devices="tripinfo_base_ns_mid_moto.2 routing_base_ns_mid_moto.2" vType="motorcycle" speedFactor="1.08" vaporized=""/>
    <tripinfo id="base_ns_mid_moto.4" depart="8.00" departLane="N_out_2_to_J2_0" departPos="2.10" departPosLat="0.00" departSpeed="0.00" departDelay="0.00" arrival="108.60" arrivalLane="J8_to_N_out_8_0" arrivalPos="189.50" arrivalPosLat="-1.35" arrivalSpeed="13.79" duration="100.60" routeLength="797.90" waitingTime="33.90" waitingCount="1" stopTime="0.00" timeLoss="43.13" rerouteNo="1" devices="tripinfo_base_ns_mid_moto.4 routing_base_ns_mid_moto.4" vType="motorcycle" speedFactor="1.14" vaporized=""/>
    <tripinfo id="base_sn_mid_moto.4" depart="8.00" departLane="N_out_8_to_J8_0" departPos="2.10" departPosLat="0.00" departSpeed="0.00" departDelay="0.00" arrival="108.60" arrivalLane="J2_to_N_out_2_0" arrivalPos="189.50" arrivalPosLat="0.00" arrivalSpeed="13.87" duration="100.60" routeLength="797.90" waitingTime="34.70" waitingCount="1" stopTime="0.00" timeLoss="43.09" rerouteNo="1" devices="tripinfo_base_sn_mid_moto.4 routing_base_sn_mid_moto.4" vType="motorcycle" speedFactor="1.17" vaporized=""/>
    <tripinfo id="base_ew_mid_moto.4" depart="10.00" departLane="N_out_6_to_J6_0" departPos="2.10" departPosLat="0.00" departSpeed="0.00" departDelay="0.00" arrival="108.60" arrivalLane="J4_to_N_out_4_0" arrivalPos="189.50" arrivalPosLat="-1.35" arrivalSpeed="13.78" duration="98.60" routeLength="797.90" waitingTime="26.60" waitingCount="2" stopTime="0.00" timeLoss="41.15" rerouteNo="1" devices="tripinfo_base_ew_mid_moto.4 routing_base_ew_mid_moto.4" vType="motorcycle" speedFactor="1.13" vaporized=""/>
    <tripinfo id="peak_morning_we_mid_moto.0" depart="1.50" departLane="N_out_4_to_J4_0" departPos="2.10" departPosLat="0.00" departSpeed="0.00" departDelay="1.50" arrival="108.70" arrivalLane="J6_to_N_out_6_1" arrivalPos="189.50" arrivalPosLat="0.00" arrivalSpeed="13.84" duration="107.20" routeLength="797.90" waitingTime="35.10" waitingCount="2" stopTime="0.00" timeLoss="48.60" rerouteNo="1" devices="tripinfo_peak_morning_we_mid_moto.0 routing_peak_morning_we_mid_moto.0" vType="motorcycle" speedFactor="1.04" vaporized=""/>
    <tripinfo id="base_ew_mid_moto.1" depart="2.50" departLane="N_out_6_to_J6_0" departPos="2.10" departPosLat="0.00" departSpeed="0.00" departDelay="0.00" arrival="108.80" arrivalLane="J4_to_N_out_4_1" arrivalPos="189.50" arrivalPosLat="-1.40" arrivalSpeed="13.52" duration="106.30" routeLength="797.90" waitingTime="33.90" waitingCount="2" stopTime="0.00" timeLoss="46.77" rerouteNo="1" devices="tripinfo_base_ew_mid_moto.1 routing_base_ew_mid_moto.1" vType="motorcycle" speedFactor="0.98" vaporized=""/>
    <tripinfo id="base_ns_mid_moto.0" depart="0.00" departLane="N_out_2_to_J2_0" departPos="2.10" departPosLat="0.00" departSpeed="0.00" departDelay="0.00" arrival="108.90" arrivalLane="J8_to_N_out_8_0" arrivalPos="189.50" arrivalPosLat="0.00" arrivalSpeed="13.54" duration="108.90" routeLength="797.90" waitingTime="41.70" waitingCount="1" stopTime="0.00" timeLoss="50.01" rerouteNo="1" devices="tripinfo_base_ns_mid_moto.0 routing_base_ns_mid_moto.0" vType="motorcycle" speedFactor="1.08" vaporized=""/>
    <tripinfo id="peak_morning_we_mid_moto.2" depart="4.50" departLane="N_out_4_to_J4_0" departPos="2.10" departPosLat="0.00" departSpeed="0.00" departDelay="3.30" arrival="108.90" arrivalLane="J6_to_N_out_6_0" arrivalPos="189.50" arrivalPosLat="-1.25" arrivalSpeed="13.48" duration="104.40" routeLength="797.90" waitingTime="24.90" waitingCount="3" stopTime="0.00" timeLoss="45.23" rerouteNo="1" devices="tripinfo_peak_morning_we_mid_moto.2 routing_peak_morning_we_mid_moto.2" vType="motorcycle" speedFactor="1.08" vaporized=""/>
    <tripinfo id="base_sn_mid_moto.1" depart="2.00" departLane="N_out_8_to_J8_0" departPos="2.10" departPosLat="0.00" departSpeed="0.00" departDelay="0.00" arrival="108.90" arrivalLane="J2_to_N_out_2_1" arrivalPos="189.50" arrivalPosLat="0.00" arrivalSpeed="13.53" duration="106.90" routeLength="797.90" waitingTime="38.60" waitingCount="1" stopTime="0.00" timeLoss="46.81" rerouteNo="1" devices="tripinfo_base_sn_mid_moto.1 routing_base_sn_mid_moto.1" vType="motorcycle" speedFactor="0.98" vaporized=""/>
    <tripinfo id="base_ew_mid_moto.2" depart="5.00" departLane="N_out_6_to_J6_0" departPos="2.10" departPosLat="0.00" departSpeed="0.00" departDelay="0.00" arrival="109.20" arrivalLane="J4_to_N_out_4_0" arrivalPos="189.50" arrivalPosLat="0.00" arrivalSpeed="13.36" duration="104.20" routeLength="797.90" waitingTime="31.50" waitingCount="2" stopTime="0.00" timeLoss="44.49" rerouteNo="1" devices="tripinfo_base_ew_mid_moto.2 routing_base_ew_mid_moto.2" vType="motorcycle" speedFactor="1.07" vaporized=""/>
    <tripinfo id="base_ew_top_moto.3" depart="7.50" departLane="N_out_3e_to_J3_0" departPos="2.10" departPosLat="0.00" departSpeed="0.00" departDelay="0.00" arrival="109.20" arrivalLane="J1_to_N_out_1w_0" arrivalPos="189.50" arrivalPosLat="0.00" arrivalSpeed="9.81" duration="101.70" routeLength="797.90" waitingTime="14.60" waitingCount="1" stopTime="0.00" timeLoss="26.41" rerouteNo="1" devices="tripinfo_base_ew_top_moto.3 routing_base_ew_top_moto.3" vType="motorcycle" speedFactor="0.99" vaporized=""/>
    <tripinfo id="base_ew_mid_moto.5" depart="12.50" departLane="N_out_6_to_J6_0" departPos="2.10" departPosLat="0.00" departSpeed="0.00" departDelay="0.00" arrival="109.20" arrivalLane="J4_to_N_out_4_1" arrivalPos="189.50" arrivalPosLat="1.35" arrivalSpeed="13.12" duration="96.70" routeLength="797.90" waitingTime="23.00" waitingCount="1" stopTime="0.00" timeLoss="35.58" rerouteNo="1" devices="tripinfo_base_ew_mid_moto.5 routing_base_ew_mid_moto.5" vType="motorcycle" speedFactor="0.95" vaporized=""/>
    <tripinfo id="base_ns_mid_moto.1" depart="2.00" departLane="N_out_2_to_J2_0" departPos="2.10" departPosLat="0.00" departSpeed="0.00" departDelay="0.00" arrival="109.40" arrivalLane="J8_to_N_out_8_1" arrivalPos="189.50" arrivalPosLat="0.00" arrivalSpeed="13.12" duration="107.40" routeLength="797.90" waitingTime="37.70" waitingCount="1" stopTime="0.00" timeLoss="45.71" rerouteNo="1" devices="tripinfo_base_ns_mid_moto.1 routing_base_ns_mid_moto.1" vType="motorcycle" speedFactor="0.95" vaporized=""/>
    <tripinfo id="base_ew_mid_moto.0" depart="0.00" departLane="N_out_6_to_J6_0" departPos="2.10" departPosLat="0.00" departSpeed="0.00" departDelay="0.00" arrival="109.50" arrivalLane="J4_to_N_out_4_1" arrivalPos="189.50" arrivalPosLat="-0.28" arrivalSpeed="12.93" duration="109.50" routeLength="797.90" waitingTime="34.70" waitingCount="2" stopTime="0.00" timeLoss="47.01" rerouteNo="1" devices="tripinfo_base_ew_mid_moto.0 routing_base_ew_mid_moto.0" vType="motorcycle" speedFactor="0.93" vaporized=""/>
    <tripinfo id="base_ns_mid_moto.3" depart="6.00" departLane="N_out_2_to_J2_0" departPos="2.10" departPosLat="0.00" departSpeed="0.00" departDelay="0.00" arrival="109.60" arrivalLane="J8_to_N_out_8_1" arrivalPos="189.50" arrivalPosLat="1.32" arrivalSpeed="12.71" duration="103.60" routeLength="797.90" waitingTime="32.70" waitingCount="1" stopTime="0.00" timeLoss="40.52" rerouteNo="1" devices="tripinfo_base_ns_mid_moto.3 routing_base_ns_mid_moto.3" vType="motorcycle" speedFactor="0.92" vaporized=""/>
    <tripinfo id="base_ns_mid_moto.5" depart="10.00" departLane="N_out_2_to_J2_0" departPos="2.10" departPosLat="0.00" departSpeed="0.00" departDelay="0.00" arrival="110.10" arrivalLane="J8_to_N_out_8_1" arrivalPos="189.50" arrivalPosLat="-1.23" arrivalSpeed="13.72" duration="100.10" routeLength="797.90" waitingTime="29.40" waitingCount="1" stopTime="0.00" timeLoss="41.53" rerouteNo="1" devices="tripinfo_base_ns_mid_moto.5 routing_base_ns_mid_moto.5" vType="motorcycle" speedFactor="0.99" vaporized=""/>
    <tripinfo id="base_ew_mid_moto.7" depart="17.50" departLane="N_out_6_to_J6_0" departPos="2.10" departPosLat="0.00" departSpeed="0.00" departDelay="0.00" arrival="110.20" arrivalLane="J4_to_N_out_4_0" arrivalPos="189.50" arrivalPosLat="-0.00" arrivalSpeed="13.84" duration="92.70" routeLength="797.90" waitingTime="20.80" waitingCount="1" stopTime="0.00" timeLoss="35.19" rerouteNo="1" devices="tripinfo_base_ew_mid_moto.7 routing_base_ew_mid_moto.7" vType="motorcycle" speedFactor="1.21" vaporized=""/>
    <tripinfo id="peak_morning_we_mid_moto.5" depart="10.50" departLane="N_out_4_to_J4_0" departPos="2.10" departPosLat="0.00" departSpeed="0.00" departDelay="7.50" arrival="110.40" arrivalLane="J6_to_N_out_6_0" arrivalPos="189.50" arrivalPosLat="-1.35" arrivalSpeed="12.71" duration="99.90" routeLength="797.90" waitingTime="13.20" waitingCount="2" stopTime="0.00" timeLoss="37.47" rerouteNo="1" devices="tripinfo_peak_morning_we_mid_moto.5 routing_peak_morning_we_mid_moto.5" vType="motorcycle" speedFactor="1.02" vaporized=""/>
    <tripinfo id="base_we_mid_moto.0" depart="0.00" departLane="N_out_4_to_J4_0" departPos="2.10" departPosLat="0.00" departSpeed="0.00" departDelay="0.00" arrival="110.50" arrivalLane="J6_to_N_out_6_1" arrivalPos="189.50" arrivalPosLat="-1.55" arrivalSpeed="12.72" duration="110.50" routeLength="797.90" waitingTime="25.60" waitingCount="2" stopTime="0.00" timeLoss="43.23" rerouteNo="1" devices="tripinfo_base_we_mid_moto.0 routing_base_we_mid_moto.0" vType="motorcycle" speedFactor="0.92" vaporized=""/>
    <tripinfo id="peak_morning_we_mid_moto.4" depart="7.50" departLane="N_out_4_to_J4_0" departPos="2.10" departPosLat="0.00" departSpeed="0.00" departDelay="5.10" arrival="110.50" arrivalLane="J6_to_N_out_6_1" arrivalPos="189.50" arrivalPosLat="0.00" arrivalSpeed="13.21" duration="103.00" routeLength="797.90" waitingTime="22.30" waitingCount="3" stopTime="0.00" timeLoss="42.65" rerouteNo="1" devices="tripinfo_peak_morning_we_mid_moto.4 routing_peak_morning_we_mid_moto.4" vType="motorcycle" speedFactor="0.96" vaporized=""/>
    <tripinfo id="base_sn_right_moto.0" depart="0.00" departLane="N_out_9s_to_J9_0" departPos="2.10" departPosLat="0.00" departSpeed="0.00" departDelay="0.00" arrival="110.60" arrivalLane="J3_to_N_out_3_0" arrivalPos="189.50" arrivalPosLat="0.00" arrivalSpeed="11.06" duration="110.60" routeLength="797.90" waitingTime="30.60" waitingCount="2" stopTime="0.00" timeLoss="42.03" rerouteNo="1" devices="tripinfo_base_sn_right_moto.0 routing_base_sn_right_moto.0" vType="motorcycle" speedFactor="1.11" vaporized=""/>
    <tripinfo id="base_sn_mid_car.2" depart="13.40" departLane="N_out_8_to_J8_1" departPos="5.10" departPosLat="0.00" departSpeed="0.00" departDelay="0.07" arrival="110.70" arrivalLane="J2_to_N_out_2_1" arrivalPos="189.50" arrivalPosLat="-0.00" arrivalSpeed="13.76" duration="97.30" routeLength="794.90" waitingTime="22.90" waitingCount="1" stopTime="0.00" timeLoss="46.25" rerouteNo="1" devices="tripinfo_base_sn_mid_car.2 routing_base_sn_mid_car.2" vType="car" speedFactor="0.99" vaporized=""/>
    <tripinfo id="base_ns_right_moto.1" depart="2.50" departLane="N_out_3_to_J3_0" departPos="2.10" departPosLat="0.00" departSpeed="0.00" departDelay="0.00" arrival="110.80" arrivalLane="J9_to_N_out_9s_0" arrivalPos="189.50" arrivalPosLat="-0.00" arrivalSpeed="11.80" duration="108.30" routeLength="797.90" waitingTime="30.60" waitingCount="2" stopTime="0.00" timeLoss="43.19" rerouteNo="1" devices="tripinfo_base_ns_right_moto.1 routing_base_ns_right_moto.1" vType="motorcycle" speedFactor="1.18" vaporized=""/>
    <tripinfo id="base_ew_mid_moto.9" depart="22.50" departLane="N_out_6_to_J6_0" departPos="2.10" departPosLat="0.00" departSpeed="0.00" departDelay="0.00" arrival="110.80" arrivalLane="J4_to_N_out_4_1" arrivalPos="189.50" arrivalPosLat="-1.55" arrivalSpeed="12.45" duration="88.30" routeLength="797.90" waitingTime="12.90" waitingCount="1" stopTime="0.00" timeLoss="23.40" rerouteNo="1" devices="tripinfo_base_ew_mid_moto.9 routing_base_ew_mid_moto.9" vType="motorcycle" speedFactor="0.90" vaporized=""/>
    <tripinfo id="base_sn_mid_moto.5" depart="10.00" departLane="N_out_8_to_J8_0" departPos="2.10" departPosLat="0.00" departSpeed="0.00" departDelay="0.00" arrival="110.90" arrivalLane="J2_to_N_out_2_0" arrivalPos="189.50" arrivalPosLat="0.00" arrivalSpeed="12.33" duration="100.90" routeLength="797.90" waitingTime="28.40" waitingCount="1" stopTime="0.00" timeLoss="40.71" rerouteNo="1" devices="tripinfo_base_sn_mid_moto.5 routing_base_sn_mid_moto.5" vType="motorcycle" speedFactor="0.99" vaporized=""/>
    <tripinfo id="base_sn_mid_truck.0" depart="3.30" departLane="N_out_8_to_J8_1" departPos="10.10" departPosLat="0.00" departSpeed="0.00" departDelay="3.30" arrival="111.20" arrivalLane="J2_to_N_out_2_2" arrivalPos="189.50" arrivalPosLat="0.00" arrivalSpeed="13.86" duration="107.90" routeLength="789.90" waitingTime="36.90" waitingCount="1" stopTime="0.00" timeLoss="50.99" rerouteNo="1" devices="tripinfo_base_sn_mid_truck.0 routing_base_sn_mid_truck.0" vType="truck" speedFactor="1.06" vaporized=""/>