<?xml version="1.0" encoding="UTF-8"?>

<!-- generated on 2025-10-09 20:14:13 by Eclipse SUMO GUI Version 1.24.0
<sumoConfiguration xmlns:xsi="http://www.w3.org/2001/XMLSchema-instance" xsi:noNamespaceSchemaLocation="http://sumo.dlr.de/xsd/sumoConfiguration.xsd">

    <input>
        <net-file value="vn.net.xml"/>
        <route-files value="vn.motorcycle.trips.xml,vn.car.trips.xml,vn.delivery.trips.xml,vn.truck.trips.xml,vn.bus.trips.xml"/>
        <additional-files value="vtype.xml"/>
    </input>

    <output>
        <summary-output value="vn.summary.xml"/>
        <tripinfo-output value="vn.tripinfo.xml"/>
    </output>

    <time>
        <begin value="0"/>
        <end value="3600"/>
        <step-length value="0.1"/>
    </time>

    <processing>
        <lateral-resolution value="0.6"/>
        <collision.action value="warn"/>
        <collision.check-junctions value="true"/>
        <collision.mingap-factor value="1.0"/>
        <tls.all-off value="false"/>
        <tls.actuated.show-detectors value="false"/>
    </processing>

    <report>
        <verbose value="true"/>
        <no-warnings value="false"/>
        <log value="vn.simulation.log"/>
        <duration-log.statistics value="true"/>
    </report>

    <random_number>
        <random value="true"/>
        <seed value="42"/>
    </random_number>

    <gui_only>
        <start value="false"/>
        <delay value="100"/>
    </gui_only>

</sumoConfiguration>
-->

<tripinfos xmlns:xsi="http://www.w3.org/2001/XMLSchema-instance" xsi:noNamespaceSchemaLocation="http://sumo.dlr.de/xsd/tripinfo_file.xsd">
    <tripinfo id="motorcycle_17" depart="8.50" departLane="J5_to_J8_0" departPos="2.10" departPosLat="0.00" departSpeed="0.00" departDelay="0.00" arrival="23.70" arrivalLane="J5_to_J8_0" arrivalPos="164.00" arrivalPosLat="0.00" arrivalSpeed="13.89" duration="15.20" routeLength="161.90" waitingTime="0.00" waitingCount="0" stopTime="0.00" timeLoss="3.48" rerouteNo="1" devices="tripinfo_motorcycle_17 routing_motorcycle_17" vType="motorcycle" speedFactor="1.29" vaporized=""/>
    <tripinfo id="motorcycle_14" depart="7.00" departLane="N_out_6_to_J6_0" departPos="2.10" departPosLat="0.00" departSpeed="0.00" departDelay="0.00" arrival="37.40" arrivalLane="J6_to_J5_1" arrivalPos="164.00" arrivalPosLat="1.08" arrivalSpeed="13.88" duration="30.40" routeLength="372.40" waitingTime="0.00" waitingCount="0" stopTime="0.00" timeLoss="3.41" rerouteNo="0" devices="tripinfo_motorcycle_14 routing_motorcycle_14" vType="motorcycle" speedFactor="1.05" vaporized=""/>
    <tripinfo id="motorcycle_10" depart="6.00" departLane="N_out_4_to_J4_0" departPos="2.10" departPosLat="0.00" departSpeed="0.00" departDelay="1.00" arrival="59.80" arrivalLane="J7_to_J8_1" arrivalPos="175.00" arrivalPosLat="0.00" arrivalSpeed="12.16" duration="53.80" routeLength="566.22" waitingTime="0.00" waitingCount="0" stopTime="0.00" timeLoss="7.72" rerouteNo="1" devices="tripinfo_motorcycle_10 routing_motorcycle_10" vType="motorcycle" speedFactor="1.09" vaporized=""/>
    <tripinfo id="motorcycle_20" depart="10.00" departLane="N_out_1w_to_J1_0" departPos="2.10" departPosLat="0.00" departSpeed="0.00" departDelay="0.00" arrival="65.90" arrivalLane="J1_to_J4_0" arrivalPos="175.00" arrivalPosLat="-0.00" arrivalSpeed="9.80" duration="55.90" routeLength="371.27" waitingTime="12.50" waitingCount="1" stopTime="0.00" timeLoss="17.98" rerouteNo="0" devices="tripinfo_motorcycle_20 routing_motorcycle_20" vType="motorcycle" speedFactor="0.99" vaporized=""/>
    <tripinfo id="car_6" depart="24.00" departLane="J1_to_J2_1" departPos="5.10" departPosLat="0.00" departSpeed="0.00" departDelay="0.00" arrival="66.30" arrivalLane="J2_to_N_out_2_2" arrivalPos="189.50" arrivalPosLat="0.00" arrivalSpeed="14.47" duration="42.30" routeLength="382.47" waitingTime="0.00" waitingCount="0" stopTime="0.00" timeLoss="9.22" rerouteNo="0" devices="tripinfo_car_6 routing_car_6" vType="car" speedFactor="0.87" vaporized=""/>
    <tripinfo id="motorcycle_31" depart="15.50" departLane="J8_to_J7_0" departPos="2.10" departPosLat="0.00" departSpeed="0.00" departDelay="0.00" arrival="67.30" arrivalLane="J7_to_J4_0" arrivalPos="175.00" arrivalPosLat="-0.00" arrivalSpeed="9.29" duration="51.80" routeLength="356.77" waitingTime="7.50" waitingCount="1" stopTime="0.00" timeLoss="12.81" rerouteNo="0" devices="tripinfo_motorcycle_31 routing_motorcycle_31" vType="motorcycle" speedFactor="0.93" vaporized=""/>
    <tripinfo id="motorcycle_41" depart="20.50" departLane="J8_to_J9_0" departPos="2.10" departPosLat="0.00" departSpeed="0.00" departDelay="0.00" arrival="67.40" arrivalLane="J9_to_J6_1" arrivalPos="175.00" arrivalPosLat="0.00" arrivalSpeed="12.09" duration="46.90" routeLength="367.65" waitingTime="7.10" waitingCount="2" stopTime="0.00" timeLoss="16.30" rerouteNo="0" devices="tripinfo_motorcycle_41 routing_motorcycle_41" vType="motorcycle" speedFactor="1.10" vaporized=""/>
    <tripinfo id="motorcycle_23" depart="11.50" departLane="J2_to_J3_0" departPos="2.10" departPosLat="0.00" departSpeed="0.00" departDelay="0.00" arrival="69.90" arrivalLane="J3_to_N_out_3_1" arrivalPos="189.50" arrivalPosLat="0.00" arrivalSpeed="12.00" duration="58.40" routeLength="382.15" waitingTime="15.50" waitingCount="3" stopTime="0.00" timeLoss="26.12" rerouteNo="0" devices="tripinfo_motorcycle_23 routing_motorcycle_23" vType="motorcycle" speedFactor="1.08" vaporized=""/>
    <tripinfo id="motorcycle_30" depart="15.00" departLane="N_out_9s_to_J9_0" departPos="2.10" departPosLat="0.00" departSpeed="0.00" departDelay="0.00" arrival="71.00" arrivalLane="J6_to_N_out_6_0" arrivalPos="189.50" arrivalPosLat="-0.00" arrivalSpeed="12.83" duration="56.00" routeLength="581.97" waitingTime="0.00" waitingCount="0" stopTime="0.00" timeLoss="3.91" rerouteNo="1" devices="tripinfo_motorcycle_30 routing_motorcycle_30" vType="motorcycle" speedFactor="1.03" vaporized=""/>
    <tripinfo id="motorcycle_42" depart="21.00" departLane="J6_to_J3_0" departPos="2.10" departPosLat="0.00" departSpeed="0.00" departDelay="0.00" arrival="74.30" arrivalLane="J2_to_N_out_2_0" arrivalPos="189.50" arrivalPosLat="-0.00" arrivalSpeed="13.09" duration="53.30" routeLength="566.22" waitingTime="0.00" waitingCount="0" stopTime="0.00" timeLoss="4.51" rerouteNo="1" devices="tripinfo_motorcycle_42 routing_motorcycle_42" vType="motorcycle" speedFactor="1.05" vaporized=""/>
    <tripinfo id="motorcycle_120" depart="60.00" departLane="J6_to_J5_0" departPos="2.10" departPosLat="0.00" departSpeed="0.00" departDelay="0.00" arrival="76.30" arrivalLane="J6_to_J5_0" arrivalPos="164.00" arrivalPosLat="-0.00" arrivalSpeed="12.19" duration="16.30" routeLength="161.90" waitingTime="0.00" waitingCount="0" stopTime="0.00" timeLoss="3.03" rerouteNo="1" devices="tripinfo_motorcycle_120 routing_motorcycle_120" vType="motorcycle" speedFactor="0.98" vaporized=""/>
    <tripinfo id="car_17" depart="68.00" departLane="J5_to_J8_1" departPos="5.10" departPosLat="0.00" departSpeed="0.00" departDelay="0.00" arrival="81.40" arrivalLane="J5_to_J8_2" arrivalPos="164.00" arrivalPosLat="0.00" arrivalSpeed="16.26" duration="13.40" routeLength="158.90" waitingTime="0.00" waitingCount="0" stopTime="0.00" timeLoss="3.46" rerouteNo="1" devices="tripinfo_car_17 routing_car_17" vType="car" speedFactor="0.98" vaporized=""/>
    <tripinfo id="motorcycle_89" depart="44.50" departLane="J6_to_J5_0" departPos="2.10" departPosLat="0.00" departSpeed="0.00" departDelay="0.00" arrival="85.20" arrivalLane="J5_to_J2_1" arrivalPos="164.00" arrivalPosLat="-1.15" arrivalSpeed="4.07" duration="40.70" routeLength="352.91" waitingTime="0.00" waitingCount="0" stopTime="0.00" timeLoss="6.65" rerouteNo="0" devices="tripinfo_motorcycle_89 routing_motorcycle_89" vType="motorcycle" speedFactor="0.84" vaporized=""/>
    <tripinfo id="motorcycle_64" depart="32.00" departLane="N_out_7_to_J7_0" departPos="2.10" departPosLat="0.00" departSpeed="0.00" departDelay="0.00" arrival="85.90" arrivalLane="J8_to_J7_1" arrivalPos="175.00" arrivalPosLat="0.00" arrivalSpeed="11.68" duration="53.90" routeLength="563.51" waitingTime="0.00" waitingCount="0" stopTime="0.00" timeLoss="4.93" rerouteNo="1" devices="tripinfo_motorcycle_64 routing_motorcycle_64" vType="motorcycle" speedFactor="1.06" vaporized=""/>
    <tripinfo id="motorcycle_70" depart="35.00" departLane="J7_to_J4_0" departPos="2.10" departPosLat="0.00" departSpeed="0.00" departDelay="0.00" arrival="88.40" arrivalLane="J5_to_J8_1" arrivalPos="164.00" arrivalPosLat="-0.10" arrivalSpeed="7.94" duration="53.40" routeLength="536.98" waitingTime="0.00" waitingCount="0" stopTime="0.00" timeLoss="6.12" rerouteNo="1" devices="tripinfo_motorcycle_70 routing_motorcycle_70" vType="motorcycle" speedFactor="1.00" vaporized=""/>
    <tripinfo id="motorcycle_136" depart="68.50" departLane="J9_to_J8_0" departPos="2.10" departPosLat="0.00" departSpeed="0.00" departDelay="0.50" arrival="88.40" arrivalLane="J9_to_J8_0" arrivalPos="175.00" arrivalPosLat="0.00" arrivalSpeed="9.82" duration="19.90" routeLength="172.90" waitingTime="0.00" waitingCount="0" stopTime="0.00" timeLoss="2.32" rerouteNo="1" devices="tripinfo_motorcycle_136 routing_motorcycle_136" vType="motorcycle" speedFactor="0.99" vaporized=""/>
    <tripinfo id="motorcycle_45" depart="23.50" departLane="J2_to_J3_0" departPos="2.10" departPosLat="0.00" departSpeed="0.00" departDelay="1.00" arrival="92.20" arrivalLane="J6_to_J9_1" arrivalPos="175.00" arrivalPosLat="-0.73" arrivalSpeed="3.99" duration="68.70" routeLength="560.77" waitingTime="0.00" waitingCount="0" stopTime="0.00" timeLoss="5.60" rerouteNo="1" devices="tripinfo_motorcycle_45 routing_motorcycle_45" vType="motorcycle" speedFactor="0.85" vaporized=""/>
    <tripinfo id="motorcycle_62" depart="31.00" departLane="J1_to_J2_0" departPos="2.10" departPosLat="0.00" departSpeed="0.00" departDelay="0.00" arrival="93.10" arrivalLane="J3_to_N_out_3e_1" arrivalPos="189.50" arrivalPosLat="0.00" arrivalSpeed="10.85" duration="62.10" routeLength="587.40" waitingTime="0.00" waitingCount="0" stopTime="0.00" timeLoss="7.16" rerouteNo="1" devices="tripinfo_motorcycle_62 routing_motorcycle_62" vType="motorcycle" speedFactor="0.98" vaporized=""/>
    <tripinfo id="motorcycle_107" depart="53.50" departLane="N_out_9_to_J9_0" departPos="2.10" departPosLat="0.00" departSpeed="0.00" departDelay="0.00" arrival="94.90" arrivalLane="J9_to_N_out_9s_1" arrivalPos="189.50" arrivalPosLat="0.00" arrivalSpeed="10.39" duration="41.40" routeLength="396.65" waitingTime="0.00" waitingCount="0" stopTime="0.00" timeLoss="2.86" rerouteNo="0" devices="tripinfo_motorcycle_107 routing_motorcycle_107" vType="motorcycle" speedFactor="0.94" vaporized=""/>
    <tripinfo id="motorcycle_108" depart="54.00" departLane="J8_to_J7_0" departPos="2.10" departPosLat="0.00" departSpeed="0.00" departDelay="0.00" arrival="95.90" arrivalLane="J7_to_J8_0" arrivalPos="175.00" arrivalPosLat="0.21" arrivalSpeed="8.69" duration="41.90" routeLength="353.01" waitingTime="0.00" waitingCount="0" stopTime="0.00" timeLoss="3.94" rerouteNo="0" devices="tripinfo_motorcycle_108 routing_motorcycle_108" vType="motorcycle" speedFactor="0.87" vaporized=""/>
    <tripinfo id="motorcycle_113" depart="56.50" departLane="J7_to_J8_0" departPos="2.10" departPosLat="0.00" departSpeed="0.00" departDelay="0.00" arrival="97.10" arrivalLane="J8_to_J9_0" arrivalPos="175.00" arrivalPosLat="0.00" arrivalSpeed="9.52" duration="40.60" routeLength="376.90" waitingTime="0.00" waitingCount="0" stopTime="0.00" timeLoss="2.66" rerouteNo="0" devices="tripinfo_motorcycle_113 routing_motorcycle_113" vType="motorcycle" speedFactor="0.96" vaporized=""/>
    <tripinfo id="motorcycle_94" depart="48.50" departLane="J3_to_J6_0" departPos="2.10" departPosLat="0.00" departSpeed="0.00" departDelay="1.50" arrival="101.00" arrivalLane="J5_to_J2_0" arrivalPos="164.00" arrivalPosLat="-0.00" arrivalSpeed="11.99" duration="52.50" routeLength="536.98" waitingTime="0.00" waitingCount="0" stopTime="0.00" timeLoss="3.54" rerouteNo="1" devices="tripinfo_motorcycle_94 routing_motorcycle_94" vType="motorcycle" speedFactor="0.97" vaporized=""/>
    <tripinfo id="motorcycle_66" depart="33.50" departLane="N_out_7_to_J7_0" departPos="2.10" departPosLat="0.00" departSpeed="0.00" departDelay="0.50" arrival="104.90" arrivalLane="J9_to_N_out_9_0" arrivalPos="189.50" arrivalPosLat="-0.00" arrivalSpeed="11.10" duration="71.40" routeLength="797.90" waitingTime="0.00" waitingCount="0" stopTime="0.00" timeLoss="6.34" rerouteNo="1" devices="tripinfo_motorcycle_66 routing_motorcycle_66" vType="motorcycle" speedFactor="1.12" vaporized=""/>
    <tripinfo id="motorcycle_72" depart="36.00" departLane="J6_to_J5_0" departPos="2.10" departPosLat="0.00" departSpeed="0.00" departDelay="0.00" arrival="108.60" arrivalLane="J2_to_N_out_2_1" arrivalPos="189.50" arrivalPosLat="0.00" arrivalSpeed="13.78" duration="72.60" routeLength="563.41" waitingTime="21.70" waitingCount="1" stopTime="0.00" timeLoss="29.97" rerouteNo="1" devices="tripinfo_motorcycle_72 routing_motorcycle_72" vType="motorcycle" speedFactor="1.01" vaporized=""/>
    <tripinfo id="motorcycle_151" depart="75.50" departLane="N_out_6_to_J6_0" departPos="2.10" departPosLat="0.00" departSpeed="0.00" departDelay="0.00" arrival="109.90" arrivalLane="J6_to_J3_0" arrivalPos="175.00" arrivalPosLat="-0.00" arrivalSpeed="11.54" duration="34.40" routeLength="371.47" waitingTime="0.00" waitingCount="0" stopTime="0.00" timeLoss="4.72" rerouteNo="0" devices="tripinfo_motorcycle_151 routing_motorcycle_151" vType="motorcycle" speedFactor="1.17" vaporized=""/>
    <tripinfo id="motorcycle_46" depart="23.00" departLane="N_out_3e_to_J3_0" departPos="2.10" departPosLat="0.00" departSpeed="0.00" departDelay="0.00" arrival="110.00" arrivalLane="J4_to_N_out_4_1" arrivalPos="189.50" arrivalPosLat="0.00" arrivalSpeed="13.77" duration="87.00" routeLength="980.72" waitingTime="2.00" waitingCount="1" stopTime="0.00" timeLoss="9.88" rerouteNo="1" devices="tripinfo_motorcycle_46 routing_motorcycle_46" vType="motorcycle" speedFactor="1.08" vaporized=""/>
    <tripinfo id="motorcycle_15" depart="7.50" departLane="N_out_4_to_J4_0" departPos="2.10" departPosLat="0.00" departSpeed="0.00" departDelay="0.00" arrival="111.10" arrivalLane="J7_to_N_out_7_0" arrivalPos="189.50" arrivalPosLat="-0.00" arrivalSpeed="10.70" duration="103.60" routeLength="569.84" waitingTime="45.30" waitingCount="1" stopTime="0.00" timeLoss="53.32" rerouteNo="1" devices="tripinfo_motorcycle_15 routing_motorcycle_15" vType="motorcycle" speedFactor="1.08" vaporized=""/>
    <tripinfo id="motorcycle_127" depart="63.50" departLane="N_out_9s_to_J9_0" departPos="2.10" departPosLat="0.00" departSpeed="0.00" departDelay="0.00" arrival="112.10" arrivalLane="J9_to_N_out_9s_1" arrivalPos="189.50" arrivalPosLat="0.00" arrivalSpeed="11.62" duration="48.60" routeLength="382.01" waitingTime="4.70" waitingCount="1" stopTime="0.00" timeLoss="15.00" rerouteNo="0" devices="tripinfo_motorcycle_127 routing_motorcycle_127" vType="motorcycle" speedFactor="1.06" vaporized=""/>
    <tripinfo id="motorcycle_18" depart="9.00" departLane="N_out_4_to_J4_0" departPos="2.10" departPosLat="0.00" departSpeed="0.00" departDelay="0.00" arrival="114.30" arrivalLane="J6_to_J9_1" arrivalPos="175.00" arrivalPosLat="-1.40" arrivalSpeed="10.62" duration="105.30" routeLength="771.47" waitingTime="23.00" waitingCount="2" stopTime="0.00" timeLoss="39.54" rerouteNo="1" devices="tripinfo_motorcycle_18 routing_motorcycle_18" vType="motorcycle" speedFactor="0.97" vaporized=""/>
    <tripinfo id="motorcycle_3" depart="1.50" departLane="N_out_7s_to_J7_0" departPos="2.10" departPosLat="0.00" departSpeed="0.00" departDelay="0.00" arrival="114.40" arrivalLane="J1_to_N_out_1w_0" arrivalPos="189.50" arrivalPosLat="-0.00" arrivalSpeed="10.09" duration="112.90" routeLength="796.65" waitingTime="25.60" waitingCount="2" stopTime="0.00" timeLoss="39.52" rerouteNo="1" devices="tripinfo_motorcycle_3 routing_motorcycle_3" vType="motorcycle" speedFactor="1.01" vaporized=""/>
    <tripinfo id="motorcycle_54" depart="27.00" departLane="J6_to_J9_0" departPos="2.10" departPosLat="0.00" departSpeed="0.00" departDelay="0.00" arrival="115.10" arrivalLane="J9_to_N_out_9_1" arrivalPos="189.50" arrivalPosLat="0.00" arrivalSpeed="11.98" duration="88.10" routeLength="382.15" waitingTime="46.80" waitingCount="2" stopTime="0.00" timeLoss="56.05" rerouteNo="0" devices="tripinfo_motorcycle_54 routing_motorcycle_54" vType="motorcycle" speedFactor="1.09" vaporized=""/>
    <tripinfo id="car_3" depart="12.00" departLane="N_out_7s_to_J7_1" departPos="5.10" departPosLat="0.00" departSpeed="0.00" departDelay="0.00" arrival="115.40" arrivalLane="J1_to_N_out_1w_1" arrivalPos="189.50" arrivalPosLat="0.00" arrivalSpeed="10.44" duration="103.40" routeLength="793.65" waitingTime="15.00" waitingCount="1" stopTime="0.00" timeLoss="27.71" rerouteNo="1" devices="tripinfo_car_3 routing_car_3" vType="car" speedFactor="0.95" vaporized=""/>
    <tripinfo id="truck_0" depart="0.00" departLane="N_out_4_to_J4_1" departPos="10.10" departPosLat="0.00" departSpeed="0.00" departDelay="0.00" arrival="115.50" arrivalLane="J2_to_J5_2" arrivalPos="164.00" arrivalPosLat="0.00" arrivalSpeed="13.88" duration="115.50" routeLength="741.45" waitingTime="35.00" waitingCount="4" stopTime="0.00" timeLoss="60.70" rerouteNo="1" devices="tripinfo_truck_0 routing_truck_0" vType="truck" speedFactor="0.93" vaporized=""/>
    <tripinfo id="truck_2" depart="80.00" departLane="N_out_6_to_J6_1" departPos="10.10" departPosLat="0.00" departSpeed="0.00" departDelay="0.00" arrival="118.10" arrivalLane="J6_to_N_out_6_2" arrivalPos="189.50" arrivalPosLat="0.00" arrivalSpeed="13.85" duration="38.10" routeLength="374.01" waitingTime="0.00" waitingCount="0" stopTime="0.00" timeLoss="10.25" rerouteNo="0" devices="tripinfo_truck_2 routing_truck_2" vType="truck" speedFactor="1.05" vaporized=""/>
    <tripinfo id="motorcycle_68" depart="34.00" departLane="J2_to_J1_0" departPos="2.10" departPosLat="0.00" departSpeed="0.00" departDelay="0.00" arrival="120.20" arrivalLane="J7_to_N_out_7s_1" arrivalPos="189.50" arrivalPosLat="0.00" arrivalSpeed="10.07" duration="86.20" routeLength="782.15" waitingTime="0.00" waitingCount="0" stopTime="0.00" timeLoss="6.66" rerouteNo="1" devices="tripinfo_motorcycle_68 routing_motorcycle_68" vType="motorcycle" speedFactor="0.91" vaporized=""/>
    <tripinfo id="motorcycle_53" depart="26.50" departLane="J2_to_J5_0" departPos="2.10" departPosLat="0.00" departSpeed="0.00" departDelay="0.00" arrival="123.00" arrivalLane="J4_to_N_out_4_0" arrivalPos="189.50" arrivalPosLat="0.00" arrivalSpeed="13.51" duration="96.50" routeLength="563.41" waitingTime="46.60" waitingCount="1" stopTime="0.00" timeLoss="54.79" rerouteNo="1" devices="tripinfo_motorcycle_53 routing_motorcycle_53" vType="motorcycle" speedFactor="1.09" vaporized=""/>
    <tripinfo id="motorcycle_133" depart="66.50" departLane="J9_to_J6_0" departPos="2.10" departPosLat="0.00" departSpeed="0.00" departDelay="0.00" arrival="127.30" arrivalLane="J9_to_N_out_9s_0" arrivalPos="189.50" arrivalPosLat="0.00" arrivalSpeed="9.55" duration="60.80" routeLength="563.51" waitingTime="0.00" waitingCount="0" stopTime="0.00" timeLoss="4.53" rerouteNo="1" devices="tripinfo_motorcycle_133 routing_motorcycle_133" vType="motorcycle" speedFactor="0.96" vaporized=""/>
    <tripinfo id="motorcycle_192" depart="96.00" departLane="J6_to_J3_0" departPos="2.10" departPosLat="0.00" departSpeed="0.00" departDelay="0.00" arrival="128.60" arrivalLane="J3_to_N_out_3_1" arrivalPos="189.50" arrivalPosLat="0.00" arrivalSpeed="12.96" duration="32.60" routeLength="383.40" waitingTime="0.00" waitingCount="0" stopTime="0.00" timeLoss="3.08" rerouteNo="0" devices="tripinfo_motorcycle_192 routing_motorcycle_192" vType="motorcycle" speedFactor="1.18" vaporized=""/>
    <tripinfo id="motorcycle_37" depart="18.50" departLane="J9_to_J8_0" departPos="2.10" departPosLat="0.00" departSpeed="0.00" departDelay="0.00" arrival="129.00" arrivalLane="J4_to_J7_1" arrivalPos="175.00" arrivalPosLat="1.05" arrivalSpeed="5.03" duration="110.50" routeLength="740.88" waitingTime="13.00" waitingCount="3" stopTime="0.00" timeLoss="43.95" rerouteNo="1" devices="tripinfo_motorcycle_37 routing_motorcycle_37" vType="motorcycle" speedFactor="1.08" vaporized=""/>
    <tripinfo id="motorcycle_147" depart="73.50" departLane="N_out_2_to_J2_0" departPos="2.10" departPosLat="0.00" departSpeed="0.00" departDelay="0.00" arrival="129.60" arrivalLane="J5_to_J8_0" arrivalPos="164.00" arrivalPosLat="0.00" arrivalSpeed="11.24" duration="56.10" routeLength="587.40" waitingTime="0.00" waitingCount="0" stopTime="0.00" timeLoss="7.05" rerouteNo="1" devices="tripinfo_motorcycle_147 routing_motorcycle_147" vType="motorcycle" speedFactor="0.90" vaporized=""/>
    <tripinfo id="motorcycle_4" depart="2.00" departLane="J6_to_J5_0" departPos="2.10" departPosLat="0.00" departSpeed="0.00" departDelay="0.00" arrival="131.20" arrivalLane="J1_to_J4_0" arrivalPos="175.00" arrivalPosLat="1.50" arrivalSpeed="3.80" duration="129.20" routeLength="741.08" waitingTime="49.90" waitingCount="2" stopTime="0.00" timeLoss="67.65" rerouteNo="1" devices="tripinfo_motorcycle_4 routing_motorcycle_4" vType="motorcycle" speedFactor="1.04" vaporized=""/>
    <tripinfo id="motorcycle_65" depart="32.50" departLane="J5_to_J4_0" departPos="2.10" departPosLat="0.00" departSpeed="0.00" departDelay="0.00" arrival="134.60" arrivalLane="J1_to_N_out_1_0" arrivalPos="189.50" arrivalPosLat="0.00" arrivalSpeed="10.79" duration="102.10" routeLength="556.47" waitingTime="41.00" waitingCount="2" stopTime="0.00" timeLoss="54.86" rerouteNo="1" devices="tripinfo_motorcycle_65 routing_motorcycle_65" vType="motorcycle" speedFactor="1.08" vaporized=""/>
    <tripinfo id="motorcycle_22" depart="11.00" departLane="J2_to_J1_0" departPos="2.10" departPosLat="0.00" departSpeed="0.00" departDelay="0.00" arrival="137.20" arrivalLane="J3_to_J2_0" arrivalPos="175.00" arrivalPosLat="-0.00" arrivalSpeed="3.70" duration="126.20" routeLength="737.12" waitingTime="40.30" waitingCount="3" stopTime="0.00" timeLoss="54.04" rerouteNo="1" devices="tripinfo_motorcycle_22 routing_motorcycle_22" vType="motorcycle" speedFactor="0.97" vaporized=""/>
    <tripinfo id="motorcycle_16" depart="8.00" departLane="J8_to_J5_0" departPos="2.10" departPosLat="0.00" departSpeed="0.00" departDelay="0.00" arrival="138.30" arrivalLane="J9_to_N_out_9s_0" arrivalPos="189.50" arrivalPosLat="0.80" arrivalSpeed="8.17" duration="130.30" routeLength="747.48" waitingTime="43.70" waitingCount="1" stopTime="0.00" timeLoss="49.51" rerouteNo="1" devices="tripinfo_motorcycle_16 routing_motorcycle_16" vType="motorcycle" speedFactor="0.83" vaporized=""/>
    <tripinfo id="motorcycle_100" depart="50.00" departLane="N_out_9_to_J9_0" departPos="2.10" departPosLat="0.00" departSpeed="0.00" departDelay="0.00" arrival="138.30" arrivalLane="J9_to_J8_0" arrivalPos="175.00" arrivalPosLat="-0.00" arrivalSpeed="4.52" duration="88.30" routeLength="383.40" waitingTime="34.40" waitingCount="1" stopTime="0.00" timeLoss="55.01" rerouteNo="0" devices="tripinfo_motorcycle_100 routing_motorcycle_100" vType="motorcycle" speedFactor="1.05" vaporized=""/>
    <tripinfo id="car_14" depart="56.00" departLane="N_out_6_to_J6_1" departPos="5.10" departPosLat="0.00" departSpeed="0.00" departDelay="0.00" arrival="139.30" arrivalLane="J6_to_J5_2" arrivalPos="164.00" arrivalPosLat="0.00" arrivalSpeed="5.75" duration="83.30" routeLength="369.40" waitingTime="38.90" waitingCount="2" stopTime="0.00" timeLoss="57.76" rerouteNo="0" devices="tripinfo_car_14 routing_car_14" vType="car" speedFactor="0.87" vaporized=""/>
    <tripinfo id="motorcycle_26" depart="13.00" departLane="J4_to_J7_0" departPos="2.10" departPosLat="0.00" departSpeed="0.00" departDelay="0.00" arrival="140.40" arrivalLane="J9_to_J8_0" arrivalPos="175.00" arrivalPosLat="-0.00" arrivalSpeed="6.08" duration="127.40" routeLength="751.76" waitingTime="32.70" waitingCount="4" stopTime="0.00" timeLoss="59.36" rerouteNo="1" devices="tripinfo_motorcycle_26 routing_motorcycle_26" vType="motorcycle" speedFactor="1.02" vaporized=""/>
    <tripinfo id="motorcycle_9" depart="4.50" departLane="N_out_4_to_J4_0" departPos="2.10" departPosLat="0.00" departSpeed="0.00" departDelay="0.00" arrival="143.20" arrivalLane="J1_to_J2_1" arrivalPos="175.00" arrivalPosLat="-1.55" arrivalSpeed="3.28" duration="138.70" routeLength="939.45" waitingTime="27.50" waitingCount="2" stopTime="0.00" timeLoss="51.90" rerouteNo="1" devices="tripinfo_motorcycle_9 routing_motorcycle_9" vType="motorcycle" speedFactor="1.01" vaporized=""/>
    <tripinfo id="motorcycle_193" depart="96.50" departLane="J2_to_J5_0" departPos="2.10" departPosLat="0.00" departSpeed="0.00" departDelay="0.00" arrival="143.30" arrivalLane="J4_to_N_out_4_1" arrivalPos="189.50" arrivalPosLat="0.00" arrivalSpeed="13.59" duration="46.80" routeLength="563.41" waitingTime="0.00" waitingCount="0" stopTime="0.00" timeLoss="3.29" rerouteNo="1" devices="tripinfo_motorcycle_193 routing_motorcycle_193" vType="motorcycle" speedFactor="0.98" vaporized=""/>
    <tripinfo id="motorcycle_81" depart="41.00" departLane="J4_to_J5_0" departPos="2.10" departPosLat="0.00" departSpeed="0.00" departDelay="0.50" arrival="147.50" arrivalLane="J9_to_J6_0" arrivalPos="175.00" arrivalPosLat="-0.00" arrivalSpeed="9.33" duration="106.50" routeLength="741.08" waitingTime="11.80" waitingCount="1" stopTime="0.00" timeLoss="38.06" rerouteNo="1" devices="tripinfo_motorcycle_81 routing_motorcycle_81" vType="motorcycle" speedFactor="0.95" vaporized=""/>
    <tripinfo id="motorcycle_183" depart="91.50" departLane="J4_to_J7_0" departPos="2.10" departPosLat="0.00" departSpeed="0.00" departDelay="0.00" arrival="148.50" arrivalLane="J7_to_J8_1" arrivalPos="175.00" arrivalPosLat="0.00" arrivalSpeed="12.50" duration="57.00" routeLength="367.65" waitingTime="4.90" waitingCount="1" stopTime="0.00" timeLoss="27.44" rerouteNo="0" devices="tripinfo_motorcycle_183 routing_motorcycle_183" vType="motorcycle" speedFactor="1.14" vaporized=""/>
    <tripinfo id="motorcycle_225" depart="112.50" departLane="N_out_7s_to_J7_0" departPos="2.10" departPosLat="0.00" departSpeed="0.00" departDelay="0.00" arrival="149.00" arrivalLane="J7_to_N_out_7_1" arrivalPos="189.50" arrivalPosLat="0.00" arrivalSpeed="12.22" duration="36.50" routeLength="396.65" waitingTime="0.00" waitingCount="0" stopTime="0.00" timeLoss="3.65" rerouteNo="0" devices="tripinfo_motorcycle_225 routing_motorcycle_225" vType="motorcycle" speedFactor="1.10" vaporized=""/>
    <tripinfo id="motorcycle_0" depart="0.00" departLane="J9_to_J8_0" departPos="2.10" departPosLat="0.00" departSpeed="0.00" departDelay="0.00" arrival="149.20" arrivalLane="J1_to_J2_1" arrivalPos="175.00" arrivalPosLat="-1.55" arrivalSpeed="4.75" duration="149.20" routeLength="948.64" waitingTime="35.20" waitingCount="3" stopTime="0.00" timeLoss="60.12" rerouteNo="1" devices="tripinfo_motorcycle_0 routing_motorcycle_0" vType="motorcycle" speedFactor="1.07" vaporized=""/>
    <tripinfo id="motorcycle_207" depart="103.80" departLane="J4_to_J1_0" departPos="2.10" departPosLat="0.00" departSpeed="0.00" departDelay="0.30" arrival="149.70" arrivalLane="J1_to_J2_0" arrivalPos="175.00" arrivalPosLat="0.15" arrivalSpeed="7.60" duration="45.90" routeLength="356.77" waitingTime="0.00" waitingCount="0" stopTime="0.00" timeLoss="13.76" rerouteNo="0" devices="tripinfo_motorcycle_207 routing_motorcycle_207" vType="motorcycle" speedFactor="1.13" vaporized=""/>
    <tripinfo id="truck_1" depart="40.00" departLane="J8_to_J5_1" departPos="10.10" departPosLat="0.00" departSpeed="0.00" departDelay="0.00" arrival="150.80" arrivalLane="J4_to_J5_1" arrivalPos="164.00" arrivalPosLat="0.00" arrivalSpeed="6.42" duration="110.80" routeLength="530.95" waitingTime="33.00" waitingCount="2" stopTime="0.00" timeLoss="71.65" rerouteNo="1" devices="tripinfo_truck_1 routing_truck_1" vType="truck" speedFactor="1.01" vaporized=""/>
    <tripinfo id="motorcycle_251" depart="125.50" departLane="J6_to_J3_0" departPos="2.10" departPosLat="0.00" departSpeed="0.00" departDelay="0.00" arrival="150.90" arrivalLane="J6_to_J3_0" arrivalPos="175.00" arrivalPosLat="0.11" arrivalSpeed="4.07" duration="25.40" routeLength="172.90" waitingTime="0.00" waitingCount="0" stopTime="0.00" timeLoss="9.87" rerouteNo="1" devices="tripinfo_motorcycle_251 routing_motorcycle_251" vType="motorcycle" speedFactor="1.01" vaporized=""/>
    <tripinfo id="motorcycle_96" depart="48.00" departLane="J4_to_J5_0" departPos="2.10" departPosLat="0.00" departSpeed="0.00" departDelay="0.00" arrival="153.40" arrivalLane="J9_to_J8_0" arrivalPos="175.00" arrivalPosLat="0.00" arrivalSpeed="8.23" duration="105.40" routeLength="744.84" waitingTime="11.20" waitingCount="2" stopTime="0.00" timeLoss="41.50" rerouteNo="1" devices="tripinfo_motorcycle_96 routing_motorcycle_96" vType="motorcycle" speedFactor="1.06" vaporized=""/>
    <tripinfo id="motorcycle_8" depart="4.00" departLane="J4_to_J1_0" departPos="2.10" departPosLat="0.00" departSpeed="0.00" departDelay="0.00" arrival="153.50" arrivalLane="J6_to_J5_0" arrivalPos="164.00" arrivalPosLat="-0.06" arrivalSpeed="11.06" duration="149.50" routeLength="917.71" waitingTime="41.50" waitingCount="1" stopTime="0.00" timeLoss="49.20" rerouteNo="1" devices="tripinfo_motorcycle_8 routing_motorcycle_8" vType="motorcycle" speedFactor="0.89" vaporized=""/>
    <tripinfo id="motorcycle_67" depart="33.50" departLane="J2_to_J3_0" departPos="2.10" departPosLat="0.00" departSpeed="0.00" departDelay="0.00" arrival="153.90" arrivalLane="J5_to_J4_1" arrivalPos="164.00" arrivalPosLat="0.00" arrivalSpeed="13.87" duration="120.40" routeLength="744.84" waitingTime="46.40" waitingCount="1" stopTime="0.00" timeLoss="55.43" rerouteNo="1" devices="tripinfo_motorcycle_67 routing_motorcycle_67" vType="motorcycle" speedFactor="1.00" vaporized=""/>